# vtk DataFile Version 2.0
, Created by Gmsh 4.10.2 
ASCII
DATASET UNSTRUCTURED_GRID
POINTS 81 double
0 0 0
0 0.5 0
1 0.5 0
1 0 0
1 -0.5 0
0 -0.5 0
0 0.1249999999999999 0
0 0.2499999999999994 0
0 0.3749999999999996 0
0.1249999999999998 0.5 0
0.2499999999999998 0.5 0
0.3749999999999994 0.5 0
0.4999999999999988 0.5 0
0.6249999999999988 0.5 0
0.7499999999999991 0.5 0
0.8749999999999994 0.5 0
1 0.3750000000000001 0
1 0.2500000000000006 0
1 0.1250000000000004 0
1 -0.1249999999999999 0
1 -0.2499999999999994 0
1 -0.3749999999999996 0
0.8750000000000001 -0.5 0
0.7500000000000002 -0.5 0
0.6250000000000007 -0.5 0
0.5000000000000011 -0.5 0
0.3750000000000012 -0.5 0
0.2500000000000009 -0.5 0
0.1250000000000006 -0.5 0
0 -0.3750000000000001 0
0 -0.2500000000000006 0
0 -0.1250000000000004 0
0.1249999999999998 0 0
0.2499999999999998 0 0
0.3749999999999994 0 0
0.4999999999999988 0 0
0.6249999999999988 0 0
0.7499999999999991 0 0
0.8749999999999994 0 0
0.1249999999999998 0.1249999999999999 0
0.2499999999999998 0.125 0
0.3749999999999994 0.1250000000000001 0
0.4999999999999988 0.1250000000000002 0
0.6249999999999988 0.1250000000000002 0
0.7499999999999991 0.1250000000000003 0
0.8749999999999994 0.1250000000000004 0
0.1249999999999998 0.2499999999999996 0
0.2499999999999998 0.2499999999999997 0
0.3749999999999994 0.2499999999999999 0
0.4999999999999988 0.25 0
0.6249999999999988 0.2500000000000002 0
0.7499999999999991 0.2500000000000003 0
0.8749999999999994 0.2500000000000004 0
0.1249999999999998 0.3749999999999996 0
0.2499999999999998 0.3749999999999997 0
0.3749999999999994 0.3749999999999998 0
0.4999999999999988 0.3749999999999999 0
0.6249999999999988 0.3749999999999999 0
0.7499999999999991 0.375 0
0.8749999999999994 0.375 0
0.8749999999999997 -0.125 0
0.7499999999999993 -0.125 0
0.6249999999999992 -0.1250000000000001 0
0.4999999999999994 -0.1250000000000002 0
0.3749999999999998 -0.1250000000000002 0
0.2500000000000001 -0.1250000000000003 0
0.125 -0.1250000000000004 0
0.8749999999999998 -0.2499999999999996 0
0.7499999999999997 -0.2499999999999997 0
0.6249999999999997 -0.2499999999999999 0
0.5 -0.25 0
0.3750000000000003 -0.2500000000000002 0
0.2500000000000003 -0.2500000000000003 0
0.1250000000000002 -0.2500000000000004 0
0.875 -0.3749999999999996 0
0.7499999999999999 -0.3749999999999997 0
0.6250000000000002 -0.3749999999999998 0
0.5000000000000006 -0.3749999999999998 0
0.3750000000000008 -0.3749999999999999 0
0.2500000000000007 -0.375 0
0.1250000000000004 -0.3750000000000001 0

CELLS 174 644
1 0
1 1
1 2
1 3
1 4
1 5
2 0 6
2 6 7
2 7 8
2 8 1
2 1 9
2 9 10
2 10 11
2 11 12
2 12 13
2 13 14
2 14 15
2 15 2
2 2 16
2 16 17
2 17 18
2 18 3
2 3 19
2 19 20
2 20 21
2 21 4
2 4 22
2 22 23
2 23 24
2 24 25
2 25 26
2 26 27
2 27 28
2 28 5
2 5 29
2 29 30
2 30 31
2 31 0
2 0 32
2 32 33
2 33 34
2 34 35
2 35 36
2 36 37
2 37 38
2 38 3
3 0 6 32
3 32 6 39
3 32 39 33
3 33 39 40
3 33 40 34
3 34 40 41
3 34 41 35
3 35 41 42
3 35 42 36
3 36 42 43
3 36 43 37
3 37 43 44
3 37 44 38
3 38 44 45
3 38 45 3
3 3 45 18
3 6 7 39
3 39 7 46
3 39 46 40
3 40 46 47
3 40 47 41
3 41 47 48
3 41 48 42
3 42 48 49
3 42 49 43
3 43 49 50
3 43 50 44
3 44 50 51
3 44 51 45
3 45 51 52
3 45 52 18
3 18 52 17
3 7 8 46
3 46 8 53
3 46 53 47
3 47 53 54
3 47 54 48
3 48 54 55
3 48 55 49
3 49 55 56
3 49 56 50
3 50 56 57
3 50 57 51
3 51 57 58
3 51 58 52
3 52 58 59
3 52 59 17
3 17 59 16
3 8 1 53
3 53 1 9
3 53 9 54
3 54 9 10
3 54 10 55
3 55 10 11
3 55 11 56
3 56 11 12
3 56 12 57
3 57 12 13
3 57 13 58
3 58 13 14
3 58 14 59
3 59 14 15
3 59 15 16
3 16 15 2
3 3 19 38
3 38 19 60
3 38 60 37
3 37 60 61
3 37 61 36
3 36 61 62
3 36 62 35
3 35 62 63
3 35 63 34
3 34 63 64
3 34 64 33
3 33 64 65
3 33 65 32
3 32 65 66
3 32 66 0
3 0 66 31
3 19 20 60
3 60 20 67
3 60 67 61
3 61 67 68
3 61 68 62
3 62 68 69
3 62 69 63
3 63 69 70
3 63 70 64
3 64 70 71
3 64 71 65
3 65 71 72
3 65 72 66
3 66 72 73
3 66 73 31
3 31 73 30
3 20 21 67
3 67 21 74
3 67 74 68
3 68 74 75
3 68 75 69
3 69 75 76
3 69 76 70
3 70 76 77
3 70 77 71
3 71 77 78
3 71 78 72
3 72 78 79
3 72 79 73
3 73 79 80
3 73 80 30
3 30 80 29
3 21 4 74
3 74 4 22
3 74 22 75
3 75 22 23
3 75 23 76
3 76 23 24
3 76 24 77
3 77 24 25
3 77 25 78
3 78 25 26
3 78 26 79
3 79 26 27
3 79 27 80
3 80 27 28
3 80 28 29
3 29 28 5

CELL_TYPES 174
1
1
1
1
1
1
3
3
3
3
3
3
3
3
3
3
3
3
3
3
3
3
3
3
3
3
3
3
3
3
3
3
3
3
3
3
3
3
3
3
3
3
3
3
3
3
5
5
5
5
5
5
5
5
5
5
5
5
5
5
5
5
5
5
5
5
5
5
5
5
5
5
5
5
5
5
5
5
5
5
5
5
5
5
5
5
5
5
5
5
5
5
5
5
5
5
5
5
5
5
5
5
5
5
5
5
5
5
5
5
5
5
5
5
5
5
5
5
5
5
5
5
5
5
5
5
5
5
5
5
5
5
5
5
5
5
5
5
5
5
5
5
5
5
5
5
5
5
5
5
5
5
5
5
5
5
5
5
5
5
5
5
5
5
5
5
5
5
5
5
5
5
5
5

CELL_DATA 174
SCALARS CellEntityIds int 1
LOOKUP_TABLE default
1
2
3
4
5
6
1
1
1
1
2
2
2
2
2
2
2
2
3
3
3
3
4
4
4
4
5
5
5
5
5
5
5
5
6
6
6
6
7
7
7
7
7
7
7
7
1
1
1
1
1
1
1
1
1
1
1
1
1
1
1
1
1
1
1
1
1
1
1
1
1
1
1
1
1
1
1
1
1
1
1
1
1
1
1
1
1
1
1
1
1
1
1
1
1
1
1
1
1
1
1
1
1
1
1
1
1
1
1
1
2
2
2
2
2
2
2
2
2
2
2
2
2
2
2
2
2
2
2
2
2
2
2
2
2
2
2
2
2
2
2
2
2
2
2
2
2
2
2
2
2
2
2
2
2
2
2
2
2
2
2
2
2
2
2
2
2
2
2
2
2
2
2
2
