# vtk DataFile Version 2.0
box, Created by Gmsh 4.10.5 
ASCII
DATASET UNSTRUCTURED_GRID
POINTS 176 double
1 -1 0
1 1 0
-1 1 0
-1 0 0
0 0 0
0 1 0
1 0 0
0 -1 0
0.1428571428571426 -1 0
0.2857142857142854 -1 0
0.4285714285714277 -1 0
0.57142857142857 -1 0
0.7142857142857132 -1 0
0.8571428571428565 -1 0
1 -0.8571428571428574 0
1 -0.7142857142857146 0
1 -0.5714285714285723 0
1 -0.42857142857143 0
1 -0.2857142857142868 0
1 -0.1428571428571435 0
1 0.1428571428571426 0
1 0.2857142857142854 0
1 0.4285714285714277 0
1 0.57142857142857 0
1 0.7142857142857132 0
1 0.8571428571428565 0
0.8571428571428574 1 0
0.7142857142857146 1 0
0.5714285714285723 1 0
0.42857142857143 1 0
0.2857142857142868 1 0
0.1428571428571435 1 0
-0.1428571428571426 1 0
-0.2857142857142854 1 0
-0.4285714285714277 1 0
-0.57142857142857 1 0
-0.7142857142857132 1 0
-0.8571428571428565 1 0
-1 0.8571428571428574 0
-1 0.7142857142857146 0
-1 0.5714285714285723 0
-1 0.42857142857143 0
-1 0.2857142857142868 0
-1 0.1428571428571435 0
0 -0.1428571428571426 0
0 -0.2857142857142854 0
0 -0.4285714285714277 0
0 -0.57142857142857 0
0 -0.7142857142857132 0
0 -0.8571428571428565 0
-0.1428571428571426 0 0
-0.2857142857142854 0 0
-0.4285714285714277 0 0
-0.57142857142857 0 0
-0.7142857142857132 0 0
-0.8571428571428565 0 0
0.1428571428571426 0 0
0.2857142857142854 0 0
0.4285714285714277 0 0
0.57142857142857 0 0
0.7142857142857132 0 0
0.8571428571428565 0 0
0 0.1428571428571426 0
0 0.2857142857142854 0
0 0.4285714285714277 0
0 0.57142857142857 0
0 0.7142857142857132 0
0 0.8571428571428565 0
0.1428571428571427 0.1428571428571425 0
0.1428571428571429 0.2857142857142854 0
0.142857142857143 0.4285714285714277 0
0.1428571428571431 0.57142857142857 0
0.1428571428571432 0.7142857142857132 0
0.1428571428571432 0.8571428571428565 0
0.2857142857142856 0.1428571428571425 0
0.2857142857142858 0.2857142857142855 0
0.285714285714286 0.4285714285714277 0
0.2857142857142863 0.57142857142857 0
0.2857142857142865 0.7142857142857132 0
0.2857142857142866 0.8571428571428565 0
0.428571428571428 0.1428571428571426 0
0.4285714285714284 0.2857142857142855 0
0.4285714285714287 0.4285714285714277 0
0.428571428571429 0.57142857142857 0
0.4285714285714294 0.7142857142857132 0
0.4285714285714297 0.8571428571428565 0
0.5714285714285703 0.1428571428571426 0
0.5714285714285706 0.2857142857142855 0
0.571428571428571 0.4285714285714277 0
0.5714285714285713 0.57142857142857 0
0.5714285714285716 0.7142857142857132 0
0.571428571428572 0.8571428571428565 0
0.7142857142857134 0.1428571428571426 0
0.7142857142857135 0.2857142857142855 0
0.7142857142857137 0.4285714285714277 0
0.714285714285714 0.57142857142857 0
0.7142857142857142 0.7142857142857132 0
0.7142857142857144 0.8571428571428565 0
0.8571428571428565 0.1428571428571425 0
0.8571428571428568 0.2857142857142855 0
0.857142857142857 0.4285714285714277 0
0.8571428571428571 0.57142857142857 0
0.8571428571428572 0.7142857142857132 0
0.8571428571428572 0.8571428571428565 0
0.1428571428571426 -0.8571428571428565 0
0.1428571428571425 -0.7142857142857134 0
0.1428571428571426 -0.5714285714285703 0
0.1428571428571426 -0.428571428571428 0
0.1428571428571426 -0.2857142857142856 0
0.1428571428571426 -0.1428571428571427 0
0.2857142857142854 -0.8571428571428568 0
0.2857142857142854 -0.7142857142857135 0
0.2857142857142855 -0.5714285714285706 0
0.2857142857142855 -0.4285714285714284 0
0.2857142857142855 -0.2857142857142858 0
0.2857142857142855 -0.1428571428571428 0
0.4285714285714277 -0.8571428571428569 0
0.4285714285714277 -0.7142857142857137 0
0.4285714285714277 -0.571428571428571 0
0.4285714285714277 -0.4285714285714287 0
0.4285714285714277 -0.285714285714286 0
0.4285714285714277 -0.1428571428571429 0
0.57142857142857 -0.8571428571428571 0
0.57142857142857 -0.714285714285714 0
0.57142857142857 -0.5714285714285713 0
0.57142857142857 -0.428571428571429 0
0.57142857142857 -0.2857142857142863 0
0.57142857142857 -0.1428571428571431 0
0.7142857142857132 -0.8571428571428572 0
0.7142857142857132 -0.7142857142857142 0
0.7142857142857132 -0.5714285714285716 0
0.7142857142857131 -0.4285714285714294 0
0.7142857142857132 -0.2857142857142864 0
0.7142857142857132 -0.1428571428571432 0
0.8571428571428565 -0.8571428571428573 0
0.8571428571428565 -0.7142857142857144 0
0.8571428571428565 -0.571428571428572 0
0.8571428571428565 -0.4285714285714297 0
0.8571428571428565 -0.2857142857142866 0
0.8571428571428565 -0.1428571428571432 0
-0.1428571428571426 0.1428571428571427 0
-0.1428571428571425 0.2857142857142856 0
-0.1428571428571426 0.428571428571428 0
-0.1428571428571426 0.5714285714285703 0
-0.1428571428571425 0.7142857142857134 0
-0.1428571428571426 0.8571428571428565 0
-0.2857142857142854 0.1428571428571428 0
-0.2857142857142854 0.2857142857142858 0
-0.2857142857142855 0.4285714285714284 0
-0.2857142857142855 0.5714285714285706 0
-0.2857142857142854 0.7142857142857135 0
-0.2857142857142855 0.8571428571428568 0
-0.4285714285714277 0.1428571428571429 0
-0.4285714285714277 0.285714285714286 0
-0.4285714285714277 0.4285714285714287 0
-0.4285714285714277 0.571428571428571 0
-0.4285714285714277 0.7142857142857137 0
-0.4285714285714277 0.8571428571428569 0
-0.57142857142857 0.1428571428571431 0
-0.57142857142857 0.2857142857142863 0
-0.57142857142857 0.428571428571429 0
-0.57142857142857 0.5714285714285713 0
-0.57142857142857 0.714285714285714 0
-0.57142857142857 0.8571428571428571 0
-0.7142857142857132 0.1428571428571432 0
-0.7142857142857132 0.2857142857142864 0
-0.7142857142857132 0.4285714285714294 0
-0.7142857142857132 0.5714285714285716 0
-0.7142857142857132 0.7142857142857142 0
-0.7142857142857132 0.8571428571428572 0
-0.8571428571428565 0.1428571428571433 0
-0.8571428571428565 0.2857142857142866 0
-0.8571428571428565 0.4285714285714297 0
-0.8571428571428565 0.571428571428572 0
-0.8571428571428565 0.7142857142857144 0
-0.8571428571428565 0.8571428571428572 0

CELLS 357 1358
1 0
1 1
1 2
1 3
1 5
1 6
1 7
2 7 8
2 8 9
2 9 10
2 10 11
2 11 12
2 12 13
2 13 0
2 0 14
2 14 15
2 15 16
2 16 17
2 17 18
2 18 19
2 19 6
2 6 20
2 20 21
2 21 22
2 22 23
2 23 24
2 24 25
2 25 1
2 1 26
2 26 27
2 27 28
2 28 29
2 29 30
2 30 31
2 31 5
2 5 32
2 32 33
2 33 34
2 34 35
2 35 36
2 36 37
2 37 2
2 2 38
2 38 39
2 39 40
2 40 41
2 41 42
2 42 43
2 43 3
2 4 44
2 44 45
2 45 46
2 46 47
2 47 48
2 48 49
2 49 7
2 4 50
2 50 51
2 51 52
2 52 53
2 53 54
2 54 55
2 55 3
3 4 56 62
3 62 56 68
3 62 68 63
3 63 68 69
3 63 69 64
3 64 69 70
3 64 70 65
3 65 70 71
3 65 71 66
3 66 71 72
3 66 72 67
3 67 72 73
3 67 73 5
3 5 73 31
3 56 57 68
3 68 57 74
3 68 74 69
3 69 74 75
3 69 75 70
3 70 75 76
3 70 76 71
3 71 76 77
3 71 77 72
3 72 77 78
3 72 78 73
3 73 78 79
3 73 79 31
3 31 79 30
3 57 58 74
3 74 58 80
3 74 80 75
3 75 80 81
3 75 81 76
3 76 81 82
3 76 82 77
3 77 82 83
3 77 83 78
3 78 83 84
3 78 84 79
3 79 84 85
3 79 85 30
3 30 85 29
3 58 59 80
3 80 59 86
3 80 86 81
3 81 86 87
3 81 87 82
3 82 87 88
3 82 88 83
3 83 88 89
3 83 89 84
3 84 89 90
3 84 90 85
3 85 90 91
3 85 91 29
3 29 91 28
3 59 60 86
3 86 60 92
3 86 92 87
3 87 92 93
3 87 93 88
3 88 93 94
3 88 94 89
3 89 94 95
3 89 95 90
3 90 95 96
3 90 96 91
3 91 96 97
3 91 97 28
3 28 97 27
3 60 61 92
3 92 61 98
3 92 98 93
3 93 98 99
3 93 99 94
3 94 99 100
3 94 100 95
3 95 100 101
3 95 101 96
3 96 101 102
3 96 102 97
3 97 102 103
3 97 103 27
3 27 103 26
3 61 6 98
3 98 6 20
3 98 20 99
3 99 20 21
3 99 21 100
3 100 21 22
3 100 22 101
3 101 22 23
3 101 23 102
3 102 23 24
3 102 24 103
3 103 24 25
3 103 25 26
3 26 25 1
3 7 8 49
3 49 8 104
3 49 104 48
3 48 104 105
3 48 105 47
3 47 105 106
3 47 106 46
3 46 106 107
3 46 107 45
3 45 107 108
3 45 108 44
3 44 108 109
3 44 109 4
3 4 109 56
3 8 9 104
3 104 9 110
3 104 110 105
3 105 110 111
3 105 111 106
3 106 111 112
3 106 112 107
3 107 112 113
3 107 113 108
3 108 113 114
3 108 114 109
3 109 114 115
3 109 115 56
3 56 115 57
3 9 10 110
3 110 10 116
3 110 116 111
3 111 116 117
3 111 117 112
3 112 117 118
3 112 118 113
3 113 118 119
3 113 119 114
3 114 119 120
3 114 120 115
3 115 120 121
3 115 121 57
3 57 121 58
3 10 11 116
3 116 11 122
3 116 122 117
3 117 122 123
3 117 123 118
3 118 123 124
3 118 124 119
3 119 124 125
3 119 125 120
3 120 125 126
3 120 126 121
3 121 126 127
3 121 127 58
3 58 127 59
3 11 12 122
3 122 12 128
3 122 128 123
3 123 128 129
3 123 129 124
3 124 129 130
3 124 130 125
3 125 130 131
3 125 131 126
3 126 131 132
3 126 132 127
3 127 132 133
3 127 133 59
3 59 133 60
3 12 13 128
3 128 13 134
3 128 134 129
3 129 134 135
3 129 135 130
3 130 135 136
3 130 136 131
3 131 136 137
3 131 137 132
3 132 137 138
3 132 138 133
3 133 138 139
3 133 139 60
3 60 139 61
3 13 0 134
3 134 0 14
3 134 14 135
3 135 14 15
3 135 15 136
3 136 15 16
3 136 16 137
3 137 16 17
3 137 17 138
3 138 17 18
3 138 18 139
3 139 18 19
3 139 19 61
3 61 19 6
3 4 50 140
3 140 62 4
3 62 140 141
3 141 63 62
3 63 141 142
3 142 64 63
3 64 142 143
3 143 65 64
3 65 143 144
3 144 66 65
3 66 144 145
3 145 67 66
3 67 145 32
3 32 5 67
3 50 51 146
3 146 140 50
3 140 146 147
3 147 141 140
3 141 147 148
3 148 142 141
3 142 148 149
3 149 143 142
3 143 149 150
3 150 144 143
3 144 150 151
3 151 145 144
3 145 151 33
3 33 32 145
3 51 52 152
3 152 146 51
3 146 152 153
3 153 147 146
3 147 153 154
3 154 148 147
3 148 154 155
3 155 149 148
3 149 155 156
3 156 150 149
3 150 156 157
3 157 151 150
3 151 157 34
3 34 33 151
3 52 53 158
3 158 152 52
3 152 158 159
3 159 153 152
3 153 159 160
3 160 154 153
3 154 160 161
3 161 155 154
3 155 161 162
3 162 156 155
3 156 162 163
3 163 157 156
3 157 163 35
3 35 34 157
3 53 54 164
3 164 158 53
3 158 164 165
3 165 159 158
3 159 165 166
3 166 160 159
3 160 166 167
3 167 161 160
3 161 167 168
3 168 162 161
3 162 168 169
3 169 163 162
3 163 169 36
3 36 35 163
3 54 55 170
3 170 164 54
3 164 170 171
3 171 165 164
3 165 171 172
3 172 166 165
3 166 172 173
3 173 167 166
3 167 173 174
3 174 168 167
3 168 174 175
3 175 169 168
3 169 175 37
3 37 36 169
3 55 3 43
3 43 170 55
3 170 43 42
3 42 171 170
3 171 42 41
3 41 172 171
3 172 41 40
3 40 173 172
3 173 40 39
3 39 174 173
3 174 39 38
3 38 175 174
3 175 38 2
3 2 37 175

CELL_TYPES 357
1
1
1
1
1
1
1
3
3
3
3
3
3
3
3
3
3
3
3
3
3
3
3
3
3
3
3
3
3
3
3
3
3
3
3
3
3
3
3
3
3
3
3
3
3
3
3
3
3
3
3
3
3
3
3
3
3
3
3
3
3
3
3
5
5
5
5
5
5
5
5
5
5
5
5
5
5
5
5
5
5
5
5
5
5
5
5
5
5
5
5
5
5
5
5
5
5
5
5
5
5
5
5
5
5
5
5
5
5
5
5
5
5
5
5
5
5
5
5
5
5
5
5
5
5
5
5
5
5
5
5
5
5
5
5
5
5
5
5
5
5
5
5
5
5
5
5
5
5
5
5
5
5
5
5
5
5
5
5
5
5
5
5
5
5
5
5
5
5
5
5
5
5
5
5
5
5
5
5
5
5
5
5
5
5
5
5
5
5
5
5
5
5
5
5
5
5
5
5
5
5
5
5
5
5
5
5
5
5
5
5
5
5
5
5
5
5
5
5
5
5
5
5
5
5
5
5
5
5
5
5
5
5
5
5
5
5
5
5
5
5
5
5
5
5
5
5
5
5
5
5
5
5
5
5
5
5
5
5
5
5
5
5
5
5
5
5
5
5
5
5
5
5
5
5
5
5
5
5
5
5
5
5
5
5
5
5
5
5
5
5
5
5
5
5
5
5
5
5
5
5
5
5
5
5
5
5
5
5
5
5
5
5
5
5
5
5
5
5
5
5
5
5
5
5
5
5
5
5
5
5
5
5
5
5
5
5
5
5
5
5
5
5
5
5
5
5
5
5
5
5
5
5
5
5
5
5

CELL_DATA 357
SCALARS CellEntityIds int 1
LOOKUP_TABLE default
1
1
1
1
1
1
1
1
1
1
1
1
1
1
1
1
1
1
1
1
1
1
1
1
1
1
1
1
1
1
1
1
1
1
1
1
1
1
1
1
1
1
1
1
1
1
1
1
1
1
1
1
1
1
1
1
-1
-1
-1
-1
-1
-1
-1
1
1
1
1
1
1
1
1
1
1
1
1
1
1
1
1
1
1
1
1
1
1
1
1
1
1
1
1
1
1
1
1
1
1
1
1
1
1
1
1
1
1
1
1
1
1
1
1
1
1
1
1
1
1
1
1
1
1
1
1
1
1
1
1
1
1
1
1
1
1
1
1
1
1
1
1
1
1
1
1
1
1
1
1
1
1
1
1
1
1
1
1
1
1
1
1
1
1
2
2
2
2
2
2
2
2
2
2
2
2
2
2
2
2
2
2
2
2
2
2
2
2
2
2
2
2
2
2
2
2
2
2
2
2
2
2
2
2
2
2
2
2
2
2
2
2
2
2
2
2
2
2
2
2
2
2
2
2
2
2
2
2
2
2
2
2
2
2
2
2
2
2
2
2
2
2
2
2
2
2
2
2
2
2
2
2
2
2
2
2
2
2
2
2
2
2
4
4
4
4
4
4
4
4
4
4
4
4
4
4
4
4
4
4
4
4
4
4
4
4
4
4
4
4
4
4
4
4
4
4
4
4
4
4
4
4
4
4
4
4
4
4
4
4
4
4
4
4
4
4
4
4
4
4
4
4
4
4
4
4
4
4
4
4
4
4
4
4
4
4
4
4
4
4
4
4
4
4
4
4
4
4
4
4
4
4
4
4
4
4
4
4
4
4
