# vtk DataFile Version 2.0
box, Created by Gmsh 4.10.5 
ASCII
DATASET UNSTRUCTURED_GRID
POINTS 81 double
0 0 0
1 0 0
1 1 0
0 1 0
0.1249999999999998 0 0
0.2499999999999998 0 0
0.3749999999999994 0 0
0.4999999999999988 0 0
0.6249999999999988 0 0
0.7499999999999991 0 0
0.8749999999999994 0 0
1 0.1249999999999998 0
1 0.2499999999999998 0
1 0.3749999999999994 0
1 0.4999999999999988 0
1 0.6249999999999988 0
1 0.7499999999999991 0
1 0.8749999999999994 0
0.8750000000000001 1 0
0.7500000000000002 1 0
0.6250000000000007 1 0
0.5000000000000011 1 0
0.3750000000000012 1 0
0.2500000000000009 1 0
0.1250000000000006 1 0
0 0.8750000000000001 0
0 0.7500000000000002 0
0 0.6250000000000007 0
0 0.5000000000000011 0
0 0.3750000000000012 0
0 0.2500000000000009 0
0 0.1250000000000006 0
0.1250000000000001 0.1250000000000005 0
0.125 0.2500000000000007 0
0.1250000000000001 0.375000000000001 0
0.1250000000000002 0.5000000000000009 0
0.1250000000000003 0.6250000000000003 0
0.1250000000000004 0.75 0
0.1250000000000004 0.8750000000000002 0
0.2499999999999999 0.1250000000000003 0
0.25 0.2500000000000007 0
0.2500000000000002 0.3750000000000008 0
0.2500000000000003 0.5000000000000006 0
0.2500000000000005 0.6250000000000002 0
0.2500000000000006 0.75 0
0.2500000000000008 0.875 0
0.3749999999999996 0.1250000000000003 0
0.3749999999999998 0.2500000000000005 0
0.3750000000000001 0.3750000000000005 0
0.3750000000000003 0.5000000000000002 0
0.3750000000000006 0.6249999999999999 0
0.3750000000000008 0.7499999999999998 0
0.375000000000001 0.8749999999999999 0
0.4999999999999991 0.1250000000000002 0
0.4999999999999994 0.2500000000000003 0
0.4999999999999997 0.3750000000000003 0
0.5 0.5 0
0.5000000000000003 0.6249999999999997 0
0.5000000000000006 0.7499999999999997 0
0.5000000000000009 0.8749999999999998 0
0.624999999999999 0.1250000000000001 0
0.6249999999999993 0.2500000000000002 0
0.6249999999999994 0.3750000000000001 0
0.6249999999999997 0.4999999999999997 0
0.6249999999999999 0.6249999999999994 0
0.6250000000000001 0.7499999999999996 0
0.6250000000000003 0.8749999999999997 0
0.7499999999999992 0.125 0
0.7499999999999993 0.2500000000000001 0
0.7499999999999994 0.3749999999999998 0
0.7499999999999997 0.4999999999999994 0
0.7499999999999998 0.6249999999999992 0
0.75 0.7499999999999993 0
0.75 0.8749999999999997 0
0.8749999999999996 0.1249999999999999 0
0.8749999999999997 0.2499999999999999 0
0.8749999999999998 0.3749999999999996 0
0.8749999999999998 0.4999999999999991 0
0.8749999999999998 0.624999999999999 0
0.875 0.7499999999999992 0
0.8750000000000002 0.8749999999999996 0

CELLS 164 616
1 0
1 1
1 2
1 3
2 0 4
2 4 5
2 5 6
2 6 7
2 7 8
2 8 9
2 9 10
2 10 1
2 1 11
2 11 12
2 12 13
2 13 14
2 14 15
2 15 16
2 16 17
2 17 2
2 2 18
2 18 19
2 19 20
2 20 21
2 21 22
2 22 23
2 23 24
2 24 3
2 3 25
2 25 26
2 26 27
2 27 28
2 28 29
2 29 30
2 30 31
2 31 0
3 0 4 31
3 31 4 32
3 31 32 30
3 30 32 33
3 30 33 29
3 29 33 34
3 29 34 28
3 28 34 35
3 28 35 27
3 27 35 36
3 27 36 26
3 26 36 37
3 26 37 25
3 25 37 38
3 25 38 3
3 3 38 24
3 4 5 32
3 32 5 39
3 32 39 33
3 33 39 40
3 33 40 34
3 34 40 41
3 34 41 35
3 35 41 42
3 35 42 36
3 36 42 43
3 36 43 37
3 37 43 44
3 37 44 38
3 38 44 45
3 38 45 24
3 24 45 23
3 5 6 39
3 39 6 46
3 39 46 40
3 40 46 47
3 40 47 41
3 41 47 48
3 41 48 42
3 42 48 49
3 42 49 43
3 43 49 50
3 43 50 44
3 44 50 51
3 44 51 45
3 45 51 52
3 45 52 23
3 23 52 22
3 6 7 46
3 46 7 53
3 46 53 47
3 47 53 54
3 47 54 48
3 48 54 55
3 48 55 49
3 49 55 56
3 49 56 50
3 50 56 57
3 50 57 51
3 51 57 58
3 51 58 52
3 52 58 59
3 52 59 22
3 22 59 21
3 7 8 53
3 53 8 60
3 53 60 54
3 54 60 61
3 54 61 55
3 55 61 62
3 55 62 56
3 56 62 63
3 56 63 57
3 57 63 64
3 57 64 58
3 58 64 65
3 58 65 59
3 59 65 66
3 59 66 21
3 21 66 20
3 8 9 60
3 60 9 67
3 60 67 61
3 61 67 68
3 61 68 62
3 62 68 69
3 62 69 63
3 63 69 70
3 63 70 64
3 64 70 71
3 64 71 65
3 65 71 72
3 65 72 66
3 66 72 73
3 66 73 20
3 20 73 19
3 9 10 67
3 67 10 74
3 67 74 68
3 68 74 75
3 68 75 69
3 69 75 76
3 69 76 70
3 70 76 77
3 70 77 71
3 71 77 78
3 71 78 72
3 72 78 79
3 72 79 73
3 73 79 80
3 73 80 19
3 19 80 18
3 10 1 74
3 74 1 11
3 74 11 75
3 75 11 12
3 75 12 76
3 76 12 13
3 76 13 77
3 77 13 14
3 77 14 78
3 78 14 15
3 78 15 79
3 79 15 16
3 79 16 80
3 80 16 17
3 80 17 18
3 18 17 2

CELL_TYPES 164
1
1
1
1
3
3
3
3
3
3
3
3
3
3
3
3
3
3
3
3
3
3
3
3
3
3
3
3
3
3
3
3
3
3
3
3
5
5
5
5
5
5
5
5
5
5
5
5
5
5
5
5
5
5
5
5
5
5
5
5
5
5
5
5
5
5
5
5
5
5
5
5
5
5
5
5
5
5
5
5
5
5
5
5
5
5
5
5
5
5
5
5
5
5
5
5
5
5
5
5
5
5
5
5
5
5
5
5
5
5
5
5
5
5
5
5
5
5
5
5
5
5
5
5
5
5
5
5
5
5
5
5
5
5
5
5
5
5
5
5
5
5
5
5
5
5
5
5
5
5
5
5
5
5
5
5
5
5
5
5
5
5
5
5

CELL_DATA 164
SCALARS CellEntityIds int 1
LOOKUP_TABLE default
2
2
2
2
1
1
1
1
1
1
1
1
1
1
1
1
1
1
1
1
1
1
1
1
1
1
1
1
1
1
1
1
1
1
1
1
1
1
1
1
1
1
1
1
1
1
1
1
1
1
1
1
1
1
1
1
1
1
1
1
1
1
1
1
1
1
1
1
1
1
1
1
1
1
1
1
1
1
1
1
1
1
1
1
1
1
1
1
1
1
1
1
1
1
1
1
1
1
1
1
1
1
1
1
1
1
1
1
1
1
1
1
1
1
1
1
1
1
1
1
1
1
1
1
1
1
1
1
1
1
1
1
1
1
1
1
1
1
1
1
1
1
1
1
1
1
1
1
1
1
1
1
1
1
1
1
1
1
1
1
1
1
1
1
